# vtk DataFile Version 5.1
vtk output
ASCII
DATASET UNSTRUCTURED_GRID
POINTS 22 double
350636.62473 1985150.2225 600 350950.93384 1985320.1193 600 351562.56239 1985422.0574 600 
352165.6961 1985286.14 600 352488.50005 1985116.2432 600 352547.96394 1984937.8515 600 
352513.98458 1984504.6146 600 352471.51037 1984198.8003 600 352539.4691 1983867.5015 600 
352530.97426 1983638.1408 600 352420.54133 1983451.2543 600 352199.67546 1983332.3266 600 
351596.54176 1983374.8008 600 351154.81003 1983340.8214 600 350882.97512 1983357.8111 600 
350611.14021 1983561.6873 600 350568.666 1983765.5635 600 350509.20211 1984011.9138 600 
350475.22275 1984275.2539 600 350492.21243 1984538.594 600 350577.16084 1984818.9237 600 
350636.62473 1985150.2225 600 
CELLS 2 22
OFFSETS vtktypeint64
0 22 
CONNECTIVITY vtktypeint64
0 1 2 3 4 5 6 7 8 
9 10 11 12 13 14 15 16 17 
18 19 20 21 
CELL_TYPES 1
4

CELL_DATA 1
SCALARS Elev vtktypeint64
LOOKUP_TABLE default
600 
