# vtk DataFile Version 5.1
vtk output
ASCII
DATASET UNSTRUCTURED_GRID
POINTS 546 double
355285.13848 1985190.0578 670 355868.38489 1985731.0573 670 355874.01477 1985720.443 670 
355890.53767 1985695.6587 670 355903.756 1985665.9175 670 355903.756 1985665.9174 670 
355923.58348 1985636.1762 670 355933.49722 1985631.2194 670 355963.23845 1985621.3056 670 
355969.61157 1985606.435 670 355972.3896 1985576.6938 670 355963.23845 1985552.9008 670 
355959.93387 1985546.9525 670 355949.51173 1985517.2113 670 355948.36783 1985487.4701 670 
355933.49722 1985457.7289 670 355933.49722 1985457.7289 670 355933.49722 1985457.7289 670 
355946.24346 1985427.9876 670 355963.23845 1985413.117 670 355992.97968 1985403.6539 670 
356022.7209 1985400.5342 670 356052.46213 1985404.6195 670 356082.20336 1985414.9759 670 
356105.33542 1985427.9876 670 356111.94458 1985433.3951 670 356141.68581 1985451.3557 670 
356171.42704 1985448.4347 670 356201.16826 1985427.9876 670 356201.16826 1985427.9876 670 
356214.18005 1985398.2464 670 356201.16826 1985377.4276 670 356193.73296 1985368.5052 670 
356171.42704 1985341.7381 670 356168.12246 1985338.764 670 356153.12474 1985309.0227 670 
356158.20871 1985279.2815 670 356171.42704 1985266.0632 670 356186.29765 1985249.5403 670 
356201.16826 1985219.7991 670 356171.42704 1985195.0147 670 356159.53055 1985190.0578 670 
356141.68581 1985181.9466 670 356111.94458 1985169.239 670 356082.20336 1985160.3166 670 
356082.20335 1985160.3166 670 356052.46213 1985138.0107 670 356048.21338 1985130.5754 670 
356035.46714 1985100.8341 670 356030.15621 1985071.0929 670 356022.7209 1985051.2654 670 
356019.00325 1985041.3517 670 355992.97968 1985011.6105 670 355992.97967 1985011.6105 670 
355976.45677 1984981.8692 670 355963.23845 1984952.128 670 355963.23845 1984952.128 670 
355963.23845 1984922.3868 670 355943.41097 1984892.6456 670 355963.23845 1984882.7318 670 
355992.97968 1984876.4231 670 356022.7209 1984882.7318 670 356047.50526 1984892.6456 670 
356052.46213 1984895.124 670 356082.20336 1984900.5766 670 356111.94458 1984897.894 670 
356129.78932 1984892.6456 670 356141.68581 1984888.9279 670 356171.42704 1984888.07 670 
356201.16826 1984887.6887 670 356230.90949 1984887.2381 670 356260.65072 1984892.6456 670 
356286.1432 1984862.9043 670 356268.76196 1984833.1631 670 356260.65072 1984815.3184 670 
356254.70247 1984803.4219 670 356249.83573 1984773.6807 670 356260.65072 1984756.6857 670 
356268.08602 1984743.9394 670 356274.73867 1984714.1982 670 356274.64659 1984684.457 670 
356264.36837 1984654.7157 670 356260.65072 1984650.1402 670 356241.40639 1984624.9745 670 
356237.51865 1984595.2333 670 356236.31699 1984565.4921 670 356230.90949 1984548.4971 670 
356226.66074 1984535.7508 670 356223.08285 1984506.0096 670 356230.90949 1984481.2253 670 
356235.86636 1984476.2684 670 356260.65072 1984466.9743 670 356290.39194 1984470.3201 670 
356320.13317 1984467.5939 670 356349.8744 1984462.637 670 356379.61562 1984449.8317 670 
356383.86437 1984446.5272 670 356406.87841 1984416.7859 670 356409.35685 1984414.0822 670 
356439.09808 1984402.9067 670 356468.8393 1984409.3506 670 356478.75305 1984416.7859 670 
356498.58053 1984430.5127 670 356513.45115 1984446.5272 670 356528.32176 1984472.5507 670 
356534.27 1984476.2684 670 356547.44112 1984506.0096 670 356558.06298 1984535.7508 670 
356558.06299 1984535.7508 670 356587.80421 1984561.2433 670 356617.54544 1984565.4921 670 
356626.4678 1984535.7508 670 356620.02387 1984506.0096 670 356617.54544 1984501.0527 670 
356596.3017 1984476.2684 670 356592.05296 1984446.5272 670 356589.55369 1984416.7859 670 
356591.30318 1984387.0447 670 356594.80215 1984357.3035 670 356587.80421 1984342.4329 670 
356576.98922 1984327.5623 670 356558.06298 1984308.636 670 356550.13199 1984297.821 670 
356534.27 1984268.0798 670 356528.32176 1984258.1661 670 356511.32677 1984238.3386 670 
356498.58053 1984208.5974 670 356498.58053 1984208.5973 670 356498.58053 1984178.8561 670 
356498.58053 1984178.8561 670 356506.84198 1984149.1149 670 356506.40717 1984119.3737 670 
356525.61801 1984089.6324 670 356528.32176 1984086.5018 670 356558.06298 1984070.5131 670 
356587.80421 1984063.8567 670 356602.67482 1984059.8912 670 356617.54544 1984053.943 670 
356647.28666 1984055.6425 670 356652.24353 1984059.8912 670 356677.02789 1984084.6756 670 
356680.33247 1984089.6324 670 356694.87263 1984119.3737 670 356706.76912 1984149.1149 670 
356706.76912 1984149.1149 670 356736.51034 1984170.7449 670 356747.6633 1984178.8561 670 
356747.6633 1984208.5973 670 356766.25157 1984217.8915 670 356781.12218 1984208.5973 670 
356795.9928 1984196.2052 670 356825.73402 1984204.0218 670 356837.63051 1984208.5973 670 
356837.63051 1984238.3386 670 356855.47525 1984244.2868 670 356885.21648 1984253.2092 670 
356914.9577 1984256.9268 670 356936.20144 1984238.3386 670 356944.69893 1984229.8411 670 
356974.44016 1984229.4162 670 356996.74608 1984238.3386 670 356996.74608 1984268.0798 670 
357004.18138 1984270.3676 670 357033.92258 1984268.0798 670 357033.92258 1984238.3386 670 
357033.92261 1984238.3386 670 357033.92262 1984238.3386 670 357063.66384 1984242.9141 670 
357093.40506 1984254.3531 670 357123.14629 1984258.1661 670 357142.97377 1984268.0798 670 
357142.97377 1984297.821 670 357152.88752 1984300.7951 670 357182.62874 1984311.3398 670 
357205.50661 1984297.821 670 357212.36997 1984293.5723 670 357222.28371 1984297.821 670 
357222.28371 1984327.5623 670 357242.1112 1984337.476 670 357271.85242 1984347.3897 670 
357301.59365 1984352.3466 670 357331.33488 1984344.0852 670 357343.72705 1984327.5623 670 
357361.0761 1984297.821 670 357361.0761 1984297.821 670 357390.81733 1984280.826 670 
357403.56357 1984268.0798 670 357411.63619 1984238.3386 670 357420.55856 1984227.1856 670 
357450.29978 1984208.5973 670 357443.69062 1984178.8561 670 357446.05104 1984149.1149 670 
357442.86448 1984119.3737 670 357440.38604 1984089.6324 670 357450.29978 1984059.8912 670 
357450.29978 1984059.8912 670 357465.17039 1984030.15 670 357480.04101 1984005.3656 670 
357482.51944 1984000.4088 670 357505.53349 1983970.6675 670 357509.78224 1983965.7107 670 
357532.6601 1983940.9263 670 357539.52346 1983932.8151 670 357565.96011 1983911.1851 670 
357569.26469 1983881.4439 670 357569.26469 1983881.4439 670 357599.00592 1983874.8347 670 
357628.74714 1983854.4064 670 357630.60597 1983851.7026 670 357647.04944 1983821.9614 670 
357655.78462 1983792.2202 670 357628.74714 1983774.7253 670 357609.82091 1983762.4789 670 
357599.00592 1983753.9815 670 357583.35264 1983732.7377 670 357570.83002 1983702.9965 670 
357569.26469 1983699.6919 670 357556.74207 1983673.2553 670 357543.98465 1983643.514 670 
357539.52346 1983633.6003 670 357523.30097 1983613.7728 670 357512.75636 1983584.0316 670 
357519.69598 1983554.2904 670 357509.78224 1983531.9844 670 357507.07849 1983524.5491 670 
357502.34693 1983494.8079 670 357484.99788 1983465.0667 670 357484.99788 1983435.3255 670 
357480.04101 1983430.077 670 357452.28253 1983405.5842 670 357450.29978 1983404.4403 670 
357420.55856 1983397.8735 670 357390.81733 1983395.2395 670 357361.0761 1983390.7136 670 
357331.33488 1983380.7999 670 357321.42113 1983375.843 670 357301.59365 1983365.028 670 
357271.85242 1983357.2547 670 357242.1112 1983346.1018 670 357242.11119 1983346.1018 670 
357212.36997 1983335.6049 670 357182.62874 1983322.3088 670 357169.8825 1983316.3605 670 
357152.88752 1983304.4641 670 357123.14629 1983310.4123 670 357118.89754 1983316.3605 670 
357103.3188 1983346.1018 670 357103.3188 1983375.843 670 357093.40507 1983405.5842 670 
357093.40507 1983435.3255 670 357123.14629 1983445.2392 670 357152.88752 1983455.9155 670 
357169.8825 1983465.0667 670 357182.62874 1983468.3713 670 357212.36997 1983476.2196 670 
357242.1112 1983482.4157 670 357271.85242 1983485.7562 670 357301.59365 1983486.5465 670 
357326.378 1983494.8079 670 357331.33488 1983496.7907 670 357361.0761 1983515.398 670 
357371.89109 1983524.5491 670 357390.81733 1983540.5636 670 357407.03982 1983554.2904 670 
357412.62756 1983584.0316 670 357420.55856 1983603.8591 670 357427.99386 1983613.7728 670 
357435.42917 1983643.514 670 357434.55443 1983673.2553 670 357420.55856 1983699.6919 670 
357417.85481 1983702.9965 670 357390.81733 1983727.7808 670 357384.20817 1983732.7377 670 
357361.0761 1983746.617 670 357337.28312 1983762.4789 670 357331.33488 1983767.4358 670 
357301.59365 1983789.9324 670 357296.63678 1983792.2202 670 357271.85242 1983801.5143 670 
357242.1112 1983818.4624 670 357235.50203 1983821.9614 670 357212.36997 1983835.8406 670 
357201.03998 1983851.7026 670 357182.62874 1983879.3195 670 357180.50437 1983881.4439 670 
357152.88752 1983905.6086 670 357138.01691 1983911.1851 670 357123.14629 1983918.0484 670 
357093.40506 1983923.0816 670 357063.66384 1983917.9445 670 357042.4201 1983911.1851 670 
357033.92261 1983908.982 670 357004.18138 1983903.3584 670 356974.44016 1983901.8909 670 
356944.69893 1983907.8805 670 356914.9577 1983885.1615 670 356912.47927 1983881.4439 670 
356892.07984 1983851.7026 670 356885.21648 1983821.9614 670 356885.21647 1983821.9614 670 
356860.88275 1983792.2202 670 356855.47525 1983787.2633 670 356825.73402 1983764.9574 670 
356822.01637 1983762.4789 670 356795.9928 1983750.9129 670 356766.25157 1983740.173 670 
356750.02908 1983732.7377 670 356736.51034 1983720.3455 670 356723.49856 1983702.9965 670 
356706.76912 1983678.6628 670 356699.33381 1983673.2553 670 356677.02789 1983657.0328 670 
356647.28666 1983648.9215 670 356617.54544 1983648.9215 670 356587.80421 1983666.6461 670 
356572.9336 1983673.2553 670 356558.06298 1983678.6628 670 356535.75706 1983702.9965 670 
356528.32176 1983711.1077 670 356512.45977 1983732.7377 670 356498.58053 1983745.7495 670 
356477.99045 1983762.4789 670 356468.8393 1983770.4099 670 356439.09808 1983792.2202 670 
356439.09808 1983792.2202 670 356409.35685 1983808.0822 670 356379.61562 1983812.0477 670 
356359.78814 1983821.9614 670 356349.8744 1983827.9096 670 356320.13317 1983839.3104 670 
356290.39194 1983837.8234 670 356260.65072 1983832.4583 670 356240.82323 1983821.9614 670 
356230.90949 1983816.0132 670 356201.16826 1983794.3445 670 356198.19414 1983792.2202 670 
356171.42704 1983774.3754 670 356149.12112 1983762.4789 670 356141.68581 1983759.1744 670 
356111.94458 1983750.5825 670 356082.20336 1983742.6515 670 356059.89744 1983732.7377 670 
356052.46213 1983727.7808 670 356022.7209 1983727.7808 670 356012.80716 1983732.7377 670 
355992.97968 1983744.6342 670 355980.23344 1983762.4789 670 355984.86843 1983792.2202 670 
355992.97968 1983814.5261 670 355996.69733 1983821.9614 670 356003.79467 1983851.7026 670 
356009.97466 1983881.4439 670 356010.82441 1983911.1851 670 356010.82441 1983940.9263 670 
356005.99146 1983970.6675 670 355992.97968 1983993.7996 670 355990.39348 1984000.4088 670 
355982.57025 1984030.15 670 355982.57025 1984059.8912 670 355964.6547 1984089.6324 670 
355963.23845 1984091.9202 670 355933.49722 1984112.2924 670 355914.90896 1984119.3737 670 
355903.756 1984124.9501 670 355874.01477 1984149.1149 670 355874.01477 1984149.1149 670 
355863.46143 1984178.8561 670 355865.65005 1984208.5973 670 355869.50852 1984238.3386 670 
355872.91324 1984268.0798 670 355858.00026 1984297.821 670 355844.27354 1984310.5673 670 
355814.53232 1984323.46 670 355784.79109 1984321.614 670 355755.04986 1984314.6744 670 
355725.30864 1984303.7693 670 355705.48115 1984297.821 670 355695.56741 1984294.2521 670 
355665.82618 1984287.4116 670 355636.08496 1984278.7017 670 355617.49669 1984268.0798 670 
355606.34373 1984263.8311 670 355576.60251 1984250.2351 670 355546.86128 1984243.9151 670 
355529.01654 1984238.3386 670 355517.12005 1984235.2079 670 355497.29257 1984238.3386 670 
355487.37883 1984240.6264 670 355457.6376 1984240.817 670 355427.89637 1984238.3386 670 
355398.15515 1984238.3386 670 355398.15514 1984238.3386 670 355368.41392 1984231.9655 670 
355338.67269 1984224.3427 670 355308.93147 1984212.0963 670 355303.97459 1984208.5973 670 
355279.19024 1984188.7699 670 355269.2765 1984178.8561 670 355253.16667 1984149.1149 670 
355249.44901 1984144.158 670 355229.62153 1984119.3737 670 355219.70779 1984108.7518 670 
355195.37405 1984089.6324 670 355189.96656 1984074.7618 670 355180.05282 1984059.8912 670 
355160.22533 1984036.0982 670 355130.48411 1984045.0206 670 355118.58762 1984059.8912 670 
355113.48912 1984089.6324 670 355100.74288 1984111.9384 670 355094.79463 1984119.3737 670 
355093.30757 1984149.1149 670 355096.49413 1984178.8561 670 355082.15461 1984208.5973 670 
355074.96715 1984238.3386 670 355071.00165 1984268.0798 670 355071.00165 1984268.0798 670 
355041.26043 1984278.4892 670 355011.5192 1984282.0757 670 354981.77797 1984271.7975 670 
354975.82973 1984268.0798 670 354952.03675 1984252.2178 670 354934.6877 1984238.3386 670 
354922.29552 1984231.5792 670 354892.55429 1984223.468 670 354862.81307 1984220.8437 670 
354833.07184 1984228.4248 670 354809.27886 1984238.3386 670 354803.33061 1984243.2954 670 
354773.58939 1984238.3386 670 354773.58937 1984238.3386 670 354743.84816 1984218.5111 670 
354737.89991 1984208.5973 670 354714.10693 1984188.7699 670 354690.31395 1984208.5973 670 
354706.67163 1984238.3386 670 354714.10693 1984253.2092 670 354728.97756 1984268.0798 670 
354743.84816 1984297.821 670 354743.84817 1984297.821 670 354743.84816 1984297.821 670 
354731.95167 1984327.5623 670 354714.10693 1984349.8682 670 354706.67163 1984357.3035 670 
354694.27945 1984387.0447 670 354684.36571 1984401.9153 670 354681.88727 1984416.7859 670 
354684.36571 1984420.0905 670 354714.10693 1984431.6565 670 354743.84816 1984427.6009 670 
354773.58939 1984424.2212 670 354803.33061 1984431.6565 670 354833.07184 1984446.5272 670 
354833.07184 1984446.5272 670 354862.81307 1984476.2684 670 354862.81307 1984476.2684 670 
354892.55429 1984492.1304 670 354918.57787 1984506.0096 670 354922.29552 1984507.4967 670 
354928.24376 1984506.0096 670 354952.03675 1984496.0959 670 354981.77797 1984476.2684 670 
354981.77797 1984476.2684 670 355011.5192 1984453.3905 670 355033.82512 1984446.5272 670 
355041.26043 1984444.6683 670 355071.00165 1984444.2394 670 355080.91539 1984446.5272 670 
355100.74288 1984450.2448 670 355130.48411 1984450.7759 670 355160.22533 1984448.6515 670 
355167.66064 1984446.5272 670 355175.09594 1984416.7859 670 355189.96656 1984393.6539 670 
355195.37405 1984387.0447 670 355219.70779 1984364.7388 670 355237.55252 1984357.3035 670 
355249.44901 1984353.9989 670 355269.2765 1984357.3035 670 355279.19024 1984359.1623 670 
355308.93147 1984367.2172 670 355338.67269 1984369.6957 670 355368.41392 1984382.796 670 
355378.32766 1984387.0447 670 355398.15515 1984398.9412 670 355427.89637 1984397.5416 670 
355457.6376 1984395.7921 670 355487.37883 1984401.1327 670 355517.12005 1984413.9534 670 
355521.69563 1984416.7859 670 355546.86128 1984437.233 670 355558.30021 1984446.5272 670 
355576.60251 1984462.3891 670 355593.95155 1984476.2684 670 355606.34373 1984485.5625 670 
355636.08496 1984495.3877 670 355665.82618 1984497.5121 670 355695.56741 1984499.4005 670 
355725.30864 1984498.9284 670 355755.04986 1984502.1303 670 355777.35578 1984506.0096 670 
355784.79109 1984520.8802 670 355814.53232 1984523.8543 670 355834.3598 1984535.7508 670 
355814.53232 1984552.7458 670 355784.79109 1984550.6215 670 355755.04986 1984555.5783 670 
355745.13612 1984565.4921 670 355725.30864 1984568.6227 670 355695.56741 1984573.4231 670 
355665.82618 1984589.8258 670 355659.87794 1984595.2333 670 355636.08496 1984610.1039 670 
355619.08997 1984624.9745 670 355606.34373 1984634.8883 670 355588.499 1984654.7157 670 
355576.60251 1984667.9341 670 355560.0796 1984684.457 670 355546.86128 1984710.8936 670 
355545.20899 1984714.1982 670 355529.51223 1984743.9394 670 355518.60711 1984773.6807 670 
355517.12005 1984788.5513 670 355514.83227 1984803.4219 670 355507.96891 1984833.1631 670 
355507.96891 1984862.9043 670 355507.60286 1984892.6456 670 355517.12005 1984912.473 670 
355521.52616 1984922.3868 670 355525.2313 1984952.128 670 355531.99067 1984981.8692 670 
355517.12005 1985001.6967 670 355508.62256 1985011.6105 670 355487.37883 1985023.0494 670 
355457.6376 1985037.1029 670 355427.89639 1985041.3517 670 355427.89637 1985041.3517 670 
355398.15515 1985048.3496 670 355368.41392 1985061.1792 670 355357.26096 1985071.0929 670 
355338.67269 1985092.3367 670 355333.5003 1985100.8341 670 355315.69084 1985130.5754 670 
355308.93147 1985139.3228 670 355298.11647 1985160.3166 670 355285.13848 1985190.0578 670 

CELLS 2 546
OFFSETS vtktypeint64
0 546 
CONNECTIVITY vtktypeint64
0 1 2 3 4 5 6 7 8 
9 10 11 12 13 14 15 16 17 
18 19 20 21 22 23 24 25 26 
27 28 29 30 31 32 33 34 35 
36 37 38 39 40 41 42 43 44 
45 46 47 48 49 50 51 52 53 
54 55 56 57 58 59 60 61 62 
63 64 65 66 67 68 69 70 71 
72 73 74 75 76 77 78 79 80 
81 82 83 84 85 86 87 88 89 
90 91 92 93 94 95 96 97 98 
99 100 101 102 103 104 105 106 107 
108 109 110 111 112 113 114 115 116 
117 118 119 120 121 122 123 124 125 
126 127 128 129 130 131 132 133 134 
135 136 137 138 139 140 141 142 143 
144 145 146 147 148 149 150 151 152 
153 154 155 156 157 158 159 160 161 
162 163 164 165 166 167 168 169 170 
171 172 173 174 175 176 177 178 179 
180 181 182 183 184 185 186 187 188 
189 190 191 192 193 194 195 196 197 
198 199 200 201 202 203 204 205 206 
207 208 209 210 211 212 213 214 215 
216 217 218 219 220 221 222 223 224 
225 226 227 228 229 230 231 232 233 
234 235 236 237 238 239 240 241 242 
243 244 245 246 247 248 249 250 251 
252 253 254 255 256 257 258 259 260 
261 262 263 264 265 266 267 268 269 
270 271 272 273 274 275 276 277 278 
279 280 281 282 283 284 285 286 287 
288 289 290 291 292 293 294 295 296 
297 298 299 300 301 302 303 304 305 
306 307 308 309 310 311 312 313 314 
315 316 317 318 319 320 321 322 323 
324 325 326 327 328 329 330 331 332 
333 334 335 336 337 338 339 340 341 
342 343 344 345 346 347 348 349 350 
351 352 353 354 355 356 357 358 359 
360 361 362 363 364 365 366 367 368 
369 370 371 372 373 374 375 376 377 
378 379 380 381 382 383 384 385 386 
387 388 389 390 391 392 393 394 395 
396 397 398 399 400 401 402 403 404 
405 406 407 408 409 410 411 412 413 
414 415 416 417 418 419 420 421 422 
423 424 425 426 427 428 429 430 431 
432 433 434 435 436 437 438 439 440 
441 442 443 444 445 446 447 448 449 
450 451 452 453 454 455 456 457 458 
459 460 461 462 463 464 465 466 467 
468 469 470 471 472 473 474 475 476 
477 478 479 480 481 482 483 484 485 
486 487 488 489 490 491 492 493 494 
495 496 497 498 499 500 501 502 503 
504 505 506 507 508 509 510 511 512 
513 514 515 516 517 518 519 520 521 
522 523 524 525 526 527 528 529 530 
531 532 533 534 535 536 537 538 539 
540 541 542 543 544 545 
CELL_TYPES 1
4

CELL_DATA 1
SCALARS Elev vtktypeint64
LOOKUP_TABLE default
670 
